<?xml version="1.0" encoding="UTF-8" standalone="no" ?>
<VTKFile byte_order="LittleEndian" type="UnstructuredGrid" version="0.1">
    <UnstructuredGrid>
        <Piece NumberOfCells="0" NumberOfPoints="2">
            <PointData>
                <DataArray Name="mass" NumberOfComponents="1" format="ascii" type="Float32">1 1</DataArray>
                <DataArray Name="velocity" NumberOfComponents="3" format="ascii" type="Float32">-1.0 -1.0 0 -1.0 -1.0 0</DataArray>
                <DataArray Name="force" NumberOfComponents="3" format="ascii" type="Float32">0 0 0 0 0 0</DataArray>
                <DataArray Name="type" NumberOfComponents="1" format="ascii" type="Int32">0 0</DataArray>
                <DataArray Name="zeroCrossing" NumberOfComponents="1" format="ascii" type="Float32">1.2 1.2</DataArray>
                <DataArray Name="potenitalWellDepth" NumberOfComponents="1" format="ascii" type="Float32">1 1</DataArray>
            </PointData>
            <CellData/>
            <Points>
                <DataArray Name="points" NumberOfComponents="3" format="ascii" type="Float32">1.0 1.0 0 3.0 3.0 0</DataArray>
            </Points>
            <Cells>
                <DataArray Name="types" NumberOfComponents="0" format="ascii" type="Float32"/>
            </Cells>
        </Piece>
    </UnstructuredGrid>
</VTKFile>